LAMMPS data file via write_data, version 2 Jun 2022, timestep = 164000

6000 atoms
4 atom types
4999 bonds
1 bond types
4998 angles
1 angle types

-100 100 xlo xhi
-100 100 ylo yhi
-100 100 zlo zhi

Masses

1 1
2 1
3 1
4 1

Atoms # angle

169 1 1 -1.9768404143600136 -3.267403236044173 -27.530235318630925 0 0 0
168 1 1 -2.7621394776559214 -2.80800059164404 -27.355222196230798 0 0 0
5029 30 4 -7.890068978327441 -9.107352436090249 -25.81638807281482 0 0 0
5757 758 4 0.22489750995260946 -7.64760108489912 -26.77725591614331 0 0 0
170 1 1 -1.2733138390397254 -3.3173308517455684 -26.797746991946614 0 0 0
171 1 1 -0.3123986712080255 -3.4667338752613746 -26.46207265492416 0 0 0
172 1 1 0.5293555387048084 -3.2471105851448994 -26.71637064566894 0 0 0
5817 818 4 4.0537369202812865 -4.435602727371217 -26.33526428590462 0 0 0
2813 1 1 7.729728282379681 -3.546147682706757 -25.944780436533936 0 0 0
167 1 1 -3.1895121264740784 -2.0064238055447667 -26.958843034047938 0 0 0
173 1 1 1.2520364932413168 -2.668081946356411 -26.982860745758497 0 0 0
174 1 1 0.8863797504911515 -1.8595158272767467 -26.997542205798386 0 0 0
164 1 1 -4.796092168131453 -0.3697072574743828 -26.132493657988046 0 0 0
165 1 1 -4.554500780568983 -0.8659320696205905 -26.945873413499505 0 0 0
166 1 1 -3.6867144835028 -1.2559924443249215 -27.18136329972256 0 0 0
176 1 1 -0.0790123032781746 -0.41844743417237307 -26.421697607483875 0 0 0
175 1 1 0.33821818499967726 -1.1881755751551182 -26.718593686460533 0 0 0
177 1 1 -0.752970096258172 0.22410887322093637 -26.168822770930685 0 0 0
178 1 1 -0.5948114071319804 1.1219190753824797 -25.85176469992253 0 0 0
180 1 1 0.7842423960717027 2.523068122596245 -25.783424211659455 0 0 0
179 1 1 0.21878841670637783 1.6590937042422162 -25.97556802291206 0 0 0
5126 127 4 -7.424479984438975 4.553735114823045 -26.30326112900396 0 0 0
5024 25 4 1.8552996278924692 6.243361426918145 -25.77642383107542 0 0 0
5859 860 4 -11.377341171008656 -8.816629584047165 -24.66624387086128 0 0 0
256 1 3 -5.165618300488025 -7.805529974639727 -24.332136702704688 0 0 0
257 1 3 -5.90655649924663 -7.224808262784179 -24.30375213578076 0 0 0
5836 837 4 -1.9195283955841738 -6.42667049660076 -25.115019641089816 0 0 0
5266 267 4 7.363469215868208 -7.023176215737923 -25.195375629498557 0 0 0
2814 1 1 7.153137517342553 -3.1944287893219774 -25.248635245729847 0 0 0
2812 1 1 8.691494044532527 -3.5311569613454625 -25.742808768829775 0 0 0
2811 1 1 9.514146575225919 -3.0842727168848127 -25.697259887519817 0 0 0
2815 1 1 7.027302939780266 -2.6560647976189276 -24.44663194840854 0 0 0
2810 1 1 10.058162185004898 -2.7729136950267868 -24.887140220288487 0 0 0
5042 43 4 -8.146753666644232 0.2136287247405785 -25.7208258110551 0 0 0
162 1 1 -5.5501470656522045 0.7990921169816918 -24.874343819857067 0 0 0
163 1 1 -5.373167489581664 0.2074453809756827 -25.61107677075193 0 0 0
2821 1 1 8.93506446702313 1.8525203696299501 -24.5724059200221 0 0 0
2822 1 1 9.188978273302066 2.7232593484151617 -24.82477897373333 0 0 0
5986 987 4 -1.9798711503124502 3.2639669394155337 -24.53988869134643 0 0 0
182 1 1 1.2601326050277568 4.391319616423259 -25.68979359609554 0 0 0
181 1 1 1.093985575790111 3.4403664011353916 -25.516717909188543 0 0 0
2823 1 1 9.138567558606255 3.6746623125558004 -24.949082960578476 0 0 0
184 1 1 2.047816728398245 5.591155379677228 -24.440386243157995 0 0 0
183 1 1 1.58799494610695 4.960276446622025 -24.989506558688735 0 0 0
2824 1 1 9.37114091228032 4.628298894697918 -25.304472697037987 0 0 0
2825 1 1 9.526851635344144 5.6050399721432935 -24.92963158345694 0 0 0
185 1 1 2.899937489748752 6.126233056098701 -24.468358555061787 0 0 0
2832 1 1 3.7598176582124156 7.230608986130733 -25.330456082888002 0 0 0
2830 1 1 5.522495910619476 6.472900345728868 -24.743891329917357 0 0 0
2831 1 1 4.557139192827645 6.645535839554813 -25.103267550952452 0 0 0
2828 1 1 7.459197164237702 6.55130749133485 -25.073163317738587 0 0 0
2829 1 1 6.47618902787226 6.3215809335895115 -24.847508192958646 0 0 0
2827 1 1 8.362042902092861 6.33092578069349 -25.086345959622104 0 0 0
2826 1 1 9.320961693185692 6.557454977900702 -24.891267995615408 0 0 0
5664 665 4 11.74737170119426 6.6127840169320695 -24.31297958406364 0 0 0
2833 1 1 3.437147531892835 8.115096666912853 -25.13844082612355 0 0 0
5129 130 4 2.690462731998752 9.257156268575091 -24.73083637456093 0 0 0
5895 896 4 0.7281955822874459 12.86525122957354 -24.36616729783942 0 0 0
389 1 1 2.2440415508675713 -14.343643944964988 -22.95064340151791 0 0 0
5422 423 4 5.989088707496815 -12.725450718050952 -22.942743354691505 0 0 0
379 1 1 -3.569785215737704 -11.187848141607967 -23.47779893658203 0 0 0
381 1 1 -2.047953611274739 -11.919896066231756 -24.074815722787598 0 0 0
5258 259 4 -2.7725013705753683 -10.763713395380757 -22.741290367180678 0 0 0
380 1 1 -2.7013080032704533 -11.28105390143503 -23.779954112144036 0 0 0
382 1 1 -1.057158811106354 -11.921267569377063 -24.082514972160062 0 0 0
383 1 1 -0.43824918085787756 -12.046185081495373 -23.365218368782728 0 0 0
5916 917 4 8.451475922473266 -10.712000927179115 -23.776104281938885 0 0 0
378 1 1 -4.115607513133045 -10.41510846055698 -23.439341359273527 0 0 0
377 1 1 -3.479230657641093 -9.85771232514118 -23.052678645317332 0 0 0
252 1 1 -1.8743767495365145 -9.13970286185298 -23.204581319763584 0 0 0
5004 5 4 0.5309071385343178 -9.398126980162646 -23.47021722815461 0 0 0
5785 786 4 5.890321349007496 -10.23767875176784 -22.762526677709964 0 0 0
715 1 1 -14.242802585239666 -8.607758407846681 -22.952440268566846 0 0 0
713 1 1 -12.845875297267881 -7.8248454233330085 -23.523832208138003 0 0 0
714 1 1 -13.362154222896127 -8.602370550748608 -23.340137003717228 0 0 0
260 1 1 -7.68476580319884 -7.665143770591323 -23.39819696052193 0 0 0
261 1 1 -8.09076113007019 -8.465427020372372 -23.100919814552974 0 0 0
255 1 1 -4.350909324415059 -8.233246215788428 -24.125589447164348 0 0 0
254 1 1 -3.5402599741861014 -8.465736330880524 -23.74309460981688 0 0 0
253 1 1 -2.661430103479301 -8.783930851662262 -23.649971932891432 0 0 0
712 1 1 -12.507546829668778 -6.9473190874726845 -23.14458893395028 0 0 0
259 1 1 -7.364774432716699 -6.685487976015666 -23.517605242000762 0 0 0
258 1 1 -6.59274796895705 -6.634986669254743 -24.01448455564401 0 0 0
5499 500 4 6.758973957628561 -6.359909684091054 -23.880803347152398 0 0 0
5811 812 4 -5.6663104975452 -4.978943562601824 -24.129270305176952 0 0 0
243 1 3 -5.310417290288497 -5.334584286461201 -23.006105645863446 0 0 0
242 1 3 -5.010920601389774 -4.458591361653903 -23.25744391791997 0 0 0
241 1 2 -4.871876838159476 -3.501953323792861 -23.130695227804424 0 0 0
2809 1 1 10.356173470879055 -3.1114846275866124 -24.04148481283451 0 0 0
240 1 3 -4.491140334775134 -2.616299414073321 -23.135578987812064 0 0 0
2816 1 1 7.1902143577735655 -2.0470876080023297 -23.73683827265866 0 0 0
2808 1 1 10.460995687365642 -2.71706748645603 -23.085302954402767 0 0 0
5906 907 4 -0.1582891845938141 -0.40905192434709 -24.034293966440313 0 0 0
2817 1 1 7.588435713759066 -1.2858357256519706 -23.3031885216946 0 0 0
2818 1 1 7.74066137026568 -0.26158939524953023 -23.37595666822639 0 0 0
5718 719 4 10.336222199861071 -0.5749535959415557 -23.213838235727675 0 0 0
38 1 1 -14.344620940178388 0.4207461418745717 -23.48713915823546 0 0 0
39 1 1 -13.676140729577678 0.7741745027203799 -24.16360756134644 0 0 0
37 1 1 -14.85502270899876 0.6596169994656841 -22.728422035294557 0 0 0
40 1 1 -12.757165648612014 0.9319949607559457 -24.006911158965583 0 0 0
160 1 1 -5.271578206499088 1.1896574630755314 -23.0862724347912 0 0 0
161 1 1 -5.468334492106168 1.3772474253583982 -24.03340159859995 0 0 0
2819 1 1 8.195112218419402 0.6423094632487927 -23.381537962850206 0 0 0
2820 1 1 8.393771358562281 1.3697428381937788 -23.959104391586173 0 0 0
41 1 1 -12.046937757405402 1.5660860194613373 -24.14477645168073 0 0 0
42 1 1 -11.180433256986156 2.1027687634845673 -23.944228721162297 0 0 0
44 1 1 -9.374179239306097 1.5820274743467124 -23.81737312236808 0 0 0
43 1 1 -10.318653599180616 1.851797137256551 -23.685214127440616 0 0 0
46 1 1 -7.862013832529886 2.0638954845856126 -23.229088555833428 0 0 0
45 1 1 -8.372234086565308 1.6286229062552315 -23.899728686904044 0 0 0
5690 691 4 12.373805789117506 2.840250439309725 -23.8822019348223 0 0 0
5677 678 4 -8.952102953470968 3.9484427134243676 -23.418719968606027 0 0 0
193 1 1 9.602443245035612 4.5398987644733735 -22.991475135345603 0 0 0
186 1 1 3.78053369579043 5.968042126997795 -24.158127875202045 0 0 0
187 1 1 4.6123191852820975 5.574413973445943 -23.93204645031971 0 0 0
188 1 1 5.526930138715786 5.368294326314174 -23.687936459067434 0 0 0
189 1 1 6.422106109162194 5.45601669794048 -23.31666824509386 0 0 0
190 1 1 7.201082074661501 6.038838001197208 -23.246180287286606 0 0 0
191 1 1 7.955502221354508 5.491686596054853 -23.032642139769813 0 0 0
192 1 1 8.794564148196148 4.9537473374589505 -23.067845596178973 0 0 0
5893 894 4 -10.642795818864077 8.011385557130776 -22.780406211823347 0 0 0
2835 1 1 2.9207775954058457 8.747680985791485 -23.352581126057846 0 0 0
2834 1 1 3.2688824921997304 8.277162966721752 -24.176257280821257 0 0 0
5496 497 4 -10.37749655500348 10.568889931099534 -23.941610679257145 0 0 0
393 1 1 5.725517993577807 -15.381553346708252 -22.18060356938368 0 0 0
394 1 1 5.760275817943189 -15.859810425913967 -21.398561393430633 0 0 0
387 1 1 0.8389606829289399 -14.099934790045545 -21.934722798019852 0 0 0
388 1 1 1.5641271321767858 -14.617516000963846 -22.277165935030286 0 0 0
390 1 1 3.132717831668932 -14.194777186389091 -22.52438642764603 0 0 0
391 1 1 4.072106601098506 -14.59921446477033 -22.36862181545895 0 0 0
392 1 1 4.95877788425284 -14.970394172982873 -22.636229990606218 0 0 0
5230 231 4 -10.714725316263362 -13.56081809914379 -21.420475751951567 0 0 0
385 1 1 0.43069553601878807 -12.511542803882957 -21.767856503117102 0 0 0
386 1 1 0.3167969909375023 -13.444082570675851 -21.49787795413427 0 0 0
5202 203 4 -10.868776226202641 -11.79545280967807 -22.46383658154599 0 0 0
5656 657 4 -8.759120440288418 -11.175976353620408 -22.538090801069767 0 0 0
384 1 1 0.08947799409603942 -11.944292320708854 -22.54921403286079 0 0 0
262 1 1 -8.120297565694461 -9.309948913172335 -22.67647948622575 0 0 0
263 1 3 -8.6898321036881 -9.223891889520035 -21.931179881114527 0 0 0
251 1 1 -2.338425736078829 -9.101137421599713 -22.39700664717269 0 0 0
376 1 1 -2.941952159138201 -9.847995737436483 -22.16728769898626 0 0 0
375 1 1 -2.3301047640514176 -9.778003199844994 -21.438205722302612 0 0 0
716 1 1 -15.260192172393559 -8.530073096045573 -22.705385774734303 0 0 0
717 1 2 -15.666522703909404 -8.761656717272706 -21.867995981229466 0 0 0
249 1 1 -3.9213332742630516 -8.95221739486857 -21.36385475373315 0 0 0
250 1 1 -3.092072377263898 -8.703143305354649 -21.873569731820577 0 0 0
5980 981 4 9.566967705368507 -8.848462255063918 -21.80094211065773 0 0 0
711 1 1 -12.854675142910926 -6.224493461024668 -22.47985583675606 0 0 0
245 1 1 -5.939143694499543 -6.672384539147285 -21.975955426162518 0 0 0
246 1 1 -5.45116421866677 -7.147528038547971 -21.30619163298281 0 0 0
244 1 1 -5.6694111563046885 -6.147939095132774 -22.724375355629398 0 0 0
5798 799 4 12.939312125238123 -6.17461106873549 -21.973176925959546 0 0 0
710 1 1 -13.58334396072112 -6.013378092299988 -21.95111298348191 0 0 0
5155 156 4 -2.0234233195920135 -5.614292887069807 -22.020503516134717 0 0 0
366 1 1 -2.782248293594149 -4.901788620655043 -21.971112162431677 0 0 0
367 1 1 -3.008766544043676 -5.548475970406652 -21.338331701523796 0 0 0
365 1 1 -2.6506090705178886 -3.9651230507616666 -22.076471297680236 0 0 0
364 1 1 -2.1298732934691214 -3.0629095186711224 -21.92673776719042 0 0 0
362 1 1 -0.4313691945286991 -3.429195867320032 -21.804305033681935 0 0 0
361 1 1 0.2821836630304678 -3.8497316958986576 -21.29283787312236 0 0 0
2799 1 1 12.120508510590714 -3.587696720098373 -21.570966993550446 0 0 0
2798 1 1 12.872376219454623 -3.0677723773792223 -21.96236046466119 0 0 0
5339 340 4 16.05316724610729 -4.23693191875462 -22.209355297669763 0 0 0
5934 935 4 17.078077996354764 -3.979807482817199 -21.91519920218489 0 0 0
239 1 3 -4.189054813609368 -1.9038216320389598 -22.490831131359016 0 0 0
238 1 3 -3.556984889462746 -1.6611417805947795 -21.920432369018247 0 0 0
363 1 1 -1.2007121725056749 -2.8567650804739384 -21.604166874229975 0 0 0
5687 688 4 3.2785532095527437 -2.2254317135198183 -22.24639197959267 0 0 0
2807 1 1 10.294038354129084 -2.670832136840598 -22.15619078934478 0 0 0
2797 1 1 13.57740365709688 -2.8934478810756064 -21.303898707128333 0 0 0
156 1 1 -5.940550735041811 -1.0207101849449745 -21.30864827029799 0 0 0
35 1 1 -15.945001111615593 0.9791806282456983 -21.332091079045153 0 0 0
36 1 1 -15.252432882245477 0.6172970447219333 -21.848869913470498 0 0 0
158 1 1 -5.255851653309538 0.689216825843776 -21.49805343645517 0 0 0
159 1 1 -5.611061761195647 1.1514565293371215 -22.23545789562587 0 0 0
48 1 1 -7.931567280841295 2.0236374242188098 -21.578649642440052 0 0 0
47 1 1 -7.436199564237449 1.9070558232086245 -22.349406745688587 0 0 0
5205 206 4 13.63674079857775 1.5318150969377142 -22.077883980499713 0 0 0
5921 922 4 -0.2914739756746266 3.915904356397459 -21.859335979353233 0 0 0
194 1 1 9.762635704740942 4.527871546951745 -22.052194212644014 0 0 0
5239 240 4 -8.484180260246596 7.198348000960574 -21.90391791335413 0 0 0
5456 457 4 -5.241342178779585 6.340455188140108 -22.55407650031234 0 0 0
5774 775 4 11.62747495448113 6.341658649256703 -22.182593414563005 0 0 0
5799 800 4 -13.666496287245604 8.325186171829179 -21.613970029812396 0 0 0
2836 1 1 2.4025265266949947 8.640156690456303 -22.5660530515727 0 0 0
2837 1 1 2.227725865741365 8.452363197032051 -21.621609908872365 0 0 0
5593 594 4 6.077293099168077 9.898776007492112 -22.21391178563704 0 0 0
5972 973 4 -7.021564632762147 11.706458928478128 -21.325563288609615 0 0 0
5865 866 4 -12.979703447500928 12.842325969996443 -21.45946173182178 0 0 0
5660 661 4 0.7796646504501126 12.132546860002213 -21.8452539146884 0 0 0
5468 469 4 6.6042911149956485 14.649136132840836 -21.44193670637024 0 0 0
5226 227 4 3.6634741197712706 15.728129216683156 -21.226284351058343 0 0 0
5793 794 4 -1.4666132313658753 16.77669131942398 -21.99368592432154 0 0 0
5232 233 4 -7.6740938030998285 -15.459994240227735 -20.449362065665884 0 0 0
395 1 1 6.041078962895931 -15.816826634698472 -20.500803027659703 0 0 0
5910 911 4 8.061880447314994 -16.505088911047295 -20.966038739131058 0 0 0
5465 466 4 -1.0808175958263857 -11.286123810231334 -21.18877754877082 0 0 0
5396 397 4 7.7462593903474115 -10.715134223945988 -19.92805582564761 0 0 0
264 1 3 -9.084102909418963 -9.136269832565961 -21.048022151223133 0 0 0
374 1 1 -1.6978270331139875 -9.106838363409635 -20.98387782523559 0 0 0
718 1 3 -16.161341451600823 -8.343325728838964 -21.19496891270149 0 0 0
719 1 3 -16.045917389658605 -7.916829740500655 -20.379984901535195 0 0 0
5513 514 4 -12.42434916432245 -8.643414509952475 -20.41236394550843 0 0 0
265 1 2 -9.086569307292807 -9.051746210213038 -20.064984007205872 0 0 0
247 1 1 -5.107240536958519 -7.837103223102708 -20.791431750250005 0 0 0
248 1 1 -4.329744207736297 -8.38552359773815 -20.594029126157412 0 0 0
373 1 1 -1.248205422723776 -8.151184336166233 -21.19776615383539 0 0 0
720 1 3 -15.446242005190495 -7.531686828455046 -19.753872730687906 0 0 0
372 1 1 -1.7057718922526757 -7.4485516745556115 -20.773017631734067 0 0 0
371 1 1 -2.1330405509189876 -7.12354167426425 -19.980679914597697 0 0 0
5404 405 4 12.471168912484238 -6.887489261511715 -21.086316717187643 0 0 0
708 1 1 -14.692244466110006 -5.799825628125614 -20.361985602118587 0 0 0
709 1 1 -14.075989825712648 -6.0055906571173345 -21.07998527952013 0 0 0
369 1 1 -2.3852364357589235 -5.813860609528653 -19.87226274623661 0 0 0
368 1 1 -2.985558072307237 -5.315940424840041 -20.424207698534676 0 0 0
2804 1 1 9.679296317854496 -4.588688722091493 -20.370042119103065 0 0 0
704 1 1 -14.53900521326929 -3.255920983140706 -19.808853811362248 0 0 0
153 1 1 -7.346129684149273 -3.150265850482966 -19.929795172642983 0 0 0
360 1 1 0.5333821019813526 -3.901979051927919 -20.35666387978483 0 0 0
2805 1 1 9.995791604854125 -3.735365896408211 -20.753840223461953 0 0 0
2801 1 1 11.515511370994119 -4.052284326716772 -19.709004852676163 0 0 0
2800 1 1 11.847933739154941 -3.8651834177928026 -20.602606749151064 0 0 0
5642 643 4 -16.183612517608445 -2.5582572444321547 -21.020714152897874 0 0 0
702 1 1 -13.196220388201366 -2.0546500539337647 -19.72313925332312 0 0 0
5510 511 4 -12.114572684147408 -2.44579419019875 -20.228575229202843 0 0 0
154 1 1 -7.004638597353595 -2.594045774880229 -20.690717005204615 0 0 0
155 1 1 -6.626697099962607 -1.7916410457555387 -21.03217570910616 0 0 0
237 1 3 -3.03628852983433 -1.622417555172311 -21.090747919909244 0 0 0
2806 1 1 10.181533435261288 -2.8590595184179417 -21.19512467116737 0 0 0
2796 1 1 13.904585953570656 -2.5764493978039584 -20.427940167820672 0 0 0
2795 1 1 14.389236325066593 -1.960708188444058 -19.87482317614025 0 0 0
2765 1 1 19.62060075628991 -2.740232261399211 -19.70322634200245 0 0 0
2764 1 1 18.672824266956965 -2.563259037087934 -19.950200126597643 0 0 0
700 1 1 -12.355771916683262 -0.328676504905594 -19.87035216974604 0 0 0
5462 463 4 -8.768978057833293 -1.4715200543434943 -21.01044832736339 0 0 0
157 1 1 -5.386314346334233 -0.19137216945882957 -21.10879040352842 0 0 0
234 1 3 -4.556099311461128 -0.17356710718889393 -19.716285437360085 0 0 0
235 1 3 -3.6594240313281046 -0.5241179452724793 -20.024318542741895 0 0 0
236 1 3 -2.997926092599886 -1.1718444133184918 -20.265281758582326 0 0 0
200 1 1 9.342484965461196 -0.3686157679733069 -20.18682764926757 0 0 0
2762 1 1 18.066013282503807 -0.892899650821489 -19.908703429319477 0 0 0
2761 1 1 18.603044793486006 -0.18943908150473204 -20.251154691350155 0 0 0
34 1 1 -16.80964920118681 0.9434315148117641 -20.922920441573222 0 0 0
33 1 1 -16.587616727555254 0.3763228655092024 -20.183910612770028 0 0 0
32 1 1 -15.806657233364046 0.021490907026156702 -19.748172626009413 0 0 0
699 1 1 -12.658130018188864 0.5914810818690077 -19.70012615821291 0 0 0
698 1 1 -13.2767509510041 1.3411342404255908 -19.843579918180566 0 0 0
199 1 1 9.145958139303655 0.37561595834307987 -20.830431044558743 0 0 0
198 1 1 9.446088452787794 1.2947269886807657 -20.85842998796815 0 0 0
2760 1 1 18.738091200365464 0.7691534563740662 -20.405323243381286 0 0 0
49 1 1 -7.483132010273542 2.3745264527445276 -20.715498180855526 0 0 0
50 1 1 -7.156023157650332 2.3941117253381874 -19.825441068181554 0 0 0
197 1 1 9.195159478081578 2.2357788650724846 -20.78391218447171 0 0 0
2759 1 1 18.93669672393592 1.6785941506981712 -20.153879182358143 0 0 0
5228 229 4 -0.4457166848327887 4.120880087520316 -19.781167383398355 0 0 0
196 1 1 9.387449318985066 3.2558877340827665 -20.76521839318374 0 0 0
195 1 1 9.540605220876845 4.1135507153251725 -21.158873254888093 0 0 0
691 1 1 -18.744006452350582 4.598935887072808 -19.731152743710666 0 0 0
5486 487 4 -11.001900126637775 6.604405847729564 -20.668066845401125 0 0 0
5973 974 4 -7.803637041077607 7.385225154842954 -20.415563532942723 0 0 0
5233 234 4 -1.8257236247050428 6.318447061879965 -20.310448901730158 0 0 0
2838 1 1 2.8740882121087736 8.773881423133888 -20.8143888591973 0 0 0
5529 530 4 -2.93756294836971 9.630787007126335 -20.622980263213723 0 0 0
2839 1 1 2.9236557002402948 9.31574150841597 -20.0589941047285 0 0 0
5037 38 4 8.922654971348454 9.447310701817946 -21.10490606643573 0 0 0
2949 1 1 8.136225201677401 10.371279422620903 -20.313958930947816 0 0 0
2948 1 1 9.120482713987144 10.52361938118307 -20.345140725195126 0 0 0
2947 1 1 10.005353116610623 10.49886510275426 -20.382739302501726 0 0 0
5969 970 4 16.805503643025894 10.321382492229263 -20.385571877996693 0 0 0
2951 1 1 6.848985137760582 11.61605082970099 -20.690740264881985 0 0 0
2950 1 1 7.273317183088769 10.750391120203094 -20.619993322267533 0 0 0
2946 1 1 10.725261848207621 11.025650272681226 -20.853933675468696 0 0 0
2945 1 1 11.475414437480406 11.54393013410216 -21.096572137244053 0 0 0
2942 1 1 13.510954443320898 12.00742340984038 -20.369034043865366 0 0 0
2941 1 1 14.361161815402134 11.899864821514415 -19.943189998982778 0 0 0
2952 1 1 6.502934236589127 12.497325587457299 -20.41073622691916 0 0 0
2953 1 1 6.070882593332231 13.226084088751218 -20.064506286810428 0 0 0
2944 1 1 12.02130843286513 12.408698106817171 -20.9105155805641 0 0 0
2943 1 1 12.819189648779712 12.721758501572642 -20.491494482531138 0 0 0
2966 1 1 11.414119104179834 14.438365049228539 -20.116001810189694 0 0 0
2967 1 1 10.690046678345404 13.90492803308286 -19.820618846780544 0 0 0
2962 1 1 9.9585213239923 16.313543186224624 -19.890999485900636 0 0 0
2961 1 1 9.103978286911595 15.958612829212969 -20.183537678999958 0 0 0
5708 709 4 -9.275553380149281 17.51428333820656 -19.965619679672304 0 0 0
449 1 1 5.921866145647622 -20.65048393513534 -18.44321138903117 0 0 0
450 1 1 6.691039485023584 -20.132169675489223 -18.5484245931888 0 0 0
452 1 1 5.91287415599938 -18.391108932844787 -18.20944354076643 0 0 0
451 1 1 6.384124755803702 -19.258159149261367 -18.332516526970053 0 0 0
454 1 1 4.355651392816472 -17.33903471384777 -18.521698788932284 0 0 0
455 1 1 3.48440721396799 -16.97056553744125 -18.36755960435029 0 0 0
453 1 1 5.128133962895252 -17.96920752948822 -18.575036227972223 0 0 0
398 1 3 6.913710721485118 -17.00522440403743 -18.4959788888984 0 0 0
399 1 1 7.182005620368666 -17.981828934928757 -18.384700916470546 0 0 0
5436 437 4 9.371242573357527 -17.287436287812856 -19.111987142302393 0 0 0
5420 421 4 12.080234920879192 -16.948384947201035 -19.41477933253868 0 0 0
456 1 1 2.7401823607715587 -16.43971097893861 -18.44694292163883 0 0 0
457 1 1 2.0943838360090625 -15.687000561954434 -18.668285471410716 0 0 0
396 1 3 6.322404238327876 -15.65716377811669 -19.58364375314167 0 0 0
397 1 3 6.677625198464234 -16.534365207719283 -19.34906448804859 0 0 0
458 1 1 1.465604862061188 -15.048712582180753 -18.310155883110347 0 0 0
5274 275 4 5.723501904166919 -11.588823499886818 -19.14396985391119 0 0 0
5713 714 4 16.660039980105456 -11.351244886653685 -18.713560035752373 0 0 0
5328 329 4 -15.168743660064532 -10.144417614166862 -19.19787136966293 0 0 0
271 1 1 -3.86205937321666 -9.108334555361981 -19.267759388357245 0 0 0
266 1 3 -8.369783598185986 -8.584491115918548 -19.573600639088205 0 0 0
267 1 1 -7.581322067650448 -8.378250243624965 -19.13873750592557 0 0 0
268 1 1 -6.582413053398371 -8.379646063112576 -18.834555856247803 0 0 0
269 1 1 -5.7107427660118715 -8.786554749532474 -18.98419787097597 0 0 0
270 1 1 -4.827426329749375 -8.874615909678727 -19.4113686125198 0 0 0
272 1 1 -3.090082482911102 -8.936033636786304 -18.611207065543464 0 0 0
2708 1 1 11.429882911749056 -7.771943247815818 -18.551071605941107 0 0 0
5293 294 4 14.904508043964135 -7.955195774789662 -19.596806017023766 0 0 0
721 1 3 -14.845164677950473 -7.052373308164018 -19.178878894453433 0 0 0
722 1 2 -14.425307193468091 -7.116433664046954 -18.35124218886321 0 0 0
370 1 1 -2.479924776089569 -6.607045266421567 -19.29996240798882 0 0 0
5661 662 4 8.375474359710992 -7.201971018731372 -19.59938110307823 0 0 0
2705 1 1 8.950943139140719 -7.495929503520939 -18.790978198301996 0 0 0
2707 1 1 10.560573847940665 -7.402211838365937 -18.986782494893472 0 0 0
2706 1 1 9.664403402468471 -7.232160581864832 -19.36273352841082 0 0 0
707 1 1 -14.918243493021365 -5.166131200852069 -19.60391986759963 0 0 0
358 1 1 0.682330394027781 -4.550105444978842 -18.63690209449609 0 0 0
2803 1 1 9.928443774099009 -5.197342599884145 -19.67183978391138 0 0 0
2802 1 1 10.861359955729844 -4.74869548236329 -19.593240180222672 0 0 0
5598 599 4 20.081506189010174 -5.812399250562237 -18.4136011333069 0 0 0
705 1 1 -15.237217456366595 -3.8785222451208607 -19.551595761122975 0 0 0
706 1 1 -14.99642736557299 -4.505648138603631 -18.867277609033774 0 0 0
152 1 1 -7.735259660731541 -3.8056318865216294 -19.312630600380608 0 0 0
151 1 1 -7.908018256683129 -3.661809634641675 -18.356063475245925 0 0 0
359 1 1 0.4816765396827511 -3.9893686934272345 -19.416030404914974 0 0 0
5411 412 4 14.527791546091882 -3.9202000798449976 -18.636280186524125 0 0 0
703 1 1 -13.670481373178465 -2.927297857872461 -19.60390218847191 0 0 0
2794 1 1 14.668370558603337 -1.7746460669182889 -18.9845713337633 0 0 0
2763 1 1 18.004559915317596 -1.9510105500360913 -19.558200489350103 0 0 0
2766 1 1 20.04298207193873 -2.877610383679963 -18.881730923809588 0 0 0
31 1 1 -15.203174321697752 -0.21179933483488128 -18.96802185034247 0 0 0
701 1 1 -12.762666837253532 -1.2151377992584191 -19.538791116802013 0 0 0
5834 835 4 9.855128178003529 -1.4500988209635821 -18.50082645021744 0 0 0
202 1 1 9.419114319891445 -0.4251161210294685 -18.453955103212493 0 0 0
201 1 1 9.507228390381803 -0.8362268169829192 -19.377315480525628 0 0 0
2793 1 1 15.416945656652933 -1.2270942842098322 -19.043525463324382 0 0 0
2792 1 1 15.685856530115895 -0.5244920892975181 -18.47623505491958 0 0 0
52 1 1 -7.2506387360747135 1.4169891834246997 -18.263170544323224 0 0 0
233 1 1 -5.378261181351283 0.020961293898620528 -19.297026100915208 0 0 0
232 1 1 -5.683905777140676 0.6149091300188085 -18.590189275742222 0 0 0
5051 52 4 19.73582470225624 0.1931429269951122 -19.23948623032132 0 0 0
5963 964 4 -20.824052723358335 1.5272343970496485 -19.110712530787314 0 0 0
5363 364 4 -16.091183146461546 2.4202191968432545 -19.37889281207748 0 0 0
697 1 1 -13.809070190562032 2.151241559022105 -19.652472815119427 0 0 0
696 1 1 -14.43664840412725 2.855784476712901 -19.57012878242396 0 0 0
51 1 1 -7.067362307918238 2.074722415043182 -18.91976208782524 0 0 0
230 1 1 -5.500016034966584 2.4751296597485384 -18.46860306319199 0 0 0
231 1 1 -5.8916972239303815 1.6201557705643945 -18.403277579650403 0 0 0
2758 1 1 18.906880268099577 2.555437443574225 -19.695040656316365 0 0 0
693 1 1 -16.91971360069995 4.391393093656142 -19.164334427275808 0 0 0
694 1 1 -16.06180068763082 3.8478684309882207 -19.301963361155593 0 0 0
695 1 1 -15.271966215132306 3.3050210940882576 -19.463553434656063 0 0 0
228 1 1 -4.624378095689874 4.195357347487914 -18.684757974900048 0 0 0
229 1 1 -4.976811162508615 3.306597062880193 -18.669523404192095 0 0 0
2756 1 1 18.027062503689212 3.254517919759003 -18.37366812527069 0 0 0
2757 1 1 18.325177342928125 3.087399686812852 -19.22169141398788 0 0 0
690 1 1 -19.326827412918483 5.21304524631762 -19.219339647577506 0 0 0
689 1 1 -18.98448802116566 5.699846445923191 -18.45163714299433 0 0 0
692 1 1 -17.840993268095954 4.565672729587365 -19.403482476913087 0 0 0
611 1 1 -7.774354862794781 4.756282011522332 -18.186342221139952 0 0 0
612 1 1 -7.527272973401862 5.687982850787111 -18.32749744992176 0 0 0
226 1 1 -4.446385506956144 5.73977443956239 -19.236896045160094 0 0 0
227 1 1 -4.121917988795673 5.036718143143001 -18.71600297501195 0 0 0
10 1 1 -14.171943700286505 6.697657161221432 -18.188149291981865 0 0 0
9 1 1 -13.408225303906903 6.196788822732301 -18.388674959678234 0 0 0
613 1 1 -7.881917931827275 6.550287354895587 -18.673354971005054 0 0 0
614 1 1 -7.680018711039513 7.505089424635696 -18.612626078971573 0 0 0
5237 238 4 -5.587428222303017 6.7978105288324056 -18.56411777638554 0 0 0
224 1 1 -3.4038130917361187 7.105558191142544 -19.06474597080282 0 0 0
225 1 1 -4.205352651241252 6.668104285876237 -19.487610670412977 0 0 0
222 1 1 -1.9857607933413182 7.1605574077706855 -18.50294385181329 0 0 0
615 1 1 -7.860073498742104 8.495512931555393 -18.668945330911324 0 0 0
616 1 1 -8.517423410554866 9.060898209876212 -18.273360071245992 0 0 0
223 1 1 -2.634790862246681 7.651841384730557 -18.966384494614754 0 0 0
5138 139 4 8.502724268688425 8.178634845030516 -18.19028027878203 0 0 0
2975 1 1 10.279412496723982 8.87646702813781 -19.18017747167978 0 0 0
2974 1 1 9.721981967982405 8.695918408456347 -18.489725887657343 0 0 0
2980 1 1 13.099577249470574 9.013042733846119 -18.485057581160927 0 0 0
2981 1 1 13.53315359169471 8.782311627497682 -19.27881905440195 0 0 0
2982 1 1 14.293174003501171 8.146580085304143 -19.388614425410047 0 0 0
2983 1 1 15.163561141358231 8.557513526970405 -19.457345624354666 0 0 0
2984 1 1 16.07756790865399 8.845831063145148 -19.12336098982811 0 0 0
5755 756 4 -12.318618984616093 9.151844190839345 -18.599585427171565 0 0 0
2841 1 1 2.729496658883184 10.14792800256495 -18.80419084077077 0 0 0
2840 1 1 3.3803484616656685 10.064936537004998 -19.596573007431743 0 0 0
5695 696 4 6.59645576944664 9.673643467547125 -18.73480979434933 0 0 0
2972 1 1 8.829645189662257 10.056359617885374 -18.22494647616775 0 0 0
5993 994 4 8.748963704702003 9.23957305888292 -19.443922784479973 0 0 0
2978 1 1 11.878363036055646 10.492572359150879 -18.20199188280716 0 0 0
2977 1 1 11.610222812749091 10.137849967165824 -19.063508436465536 0 0 0
2976 1 1 10.981787773409694 9.561811239031472 -19.5288335044956 0 0 0
2985 1 1 16.79487304317115 9.335934345344386 -18.75221036399797 0 0 0
5518 519 4 -11.521918074719254 11.050257902656172 -19.201240819363406 0 0 0
2971 1 1 9.068473432663131 10.80166804387525 -18.7907408111483 0 0 0
2970 1 1 9.416153541480186 11.532214137689069 -19.203547309317525 0 0 0
5835 836 4 14.743282151716567 10.791103377524129 -18.771795763665477 0 0 0
5131 132 4 -16.381839415275888 12.579955101043028 -18.880916835463825 0 0 0
2968 1 1 10.166583867040519 13.252480875990068 -19.437099721173368 0 0 0
2969 1 1 9.923874008945962 12.39129095142171 -19.053834375732894 0 0 0
2940 1 1 15.018850783262694 12.218412626826561 -19.27554314257793 0 0 0
2939 1 1 15.73484781004069 12.302385757984531 -18.756709621738352 0 0 0
2955 1 1 6.014980579647335 14.077124531312885 -18.71008812707127 0 0 0
2954 1 1 5.542418540150727 13.68364582582585 -19.415619137491582 0 0 0
2965 1 1 11.655498769091853 14.949397996970731 -19.32456210438757 0 0 0
2959 1 1 7.9929093408548955 16.261910840561598 -18.775957840653273 0 0 0
2960 1 1 8.343401700081094 15.906644132889793 -19.580026031919935 0 0 0
2964 1 1 11.207694487302422 15.705312342152327 -18.92283644594551 0 0 0